 # Bcc Mo oriented X=[11-2] Y=[111] Z=[1-10].
  
       38640  atoms
           5  atom types
 
      0.000000000000      79.436952360000  xlo xhi
      0.000000000000     129.191937690000  ylo yhi
      0.000000000000      64.208124160000  zlo zhi
 
Masses
 
1 180.948 # Ta
2 92.9064 # Nb
3 50.9415 # V
4 95.94 # Mo
5 183.84 # W
 
Atoms # atomic
 
         1    1        3.971847618000       0.000000000000       2.293147566606
         2    2        5.295797088790       1.872346454957       0.000000000000
         3    3        0.000000000000       0.000000000000       0.000000000000
         4    1        1.323949470790       1.872346454957       2.293147566606
         5    2        6.619745765210       0.936173873438       2.293147566606
         6    2        2.647898147210       0.936173873438       0.000000000000
         7    2       11.915542854000       0.000000000000       2.293147566606
         8    2       13.239492324790       1.872346454957       0.000000000000
         9    2        7.943695236000       0.000000000000       0.000000000000
        10    3        9.267644706790       1.872346454957       2.293147566606
        11    1       14.563441001210       0.936173873438       2.293147566606
        12    3       10.591593383210       0.936173873438       0.000000000000
        13    1       19.859238090000       0.000000000000       2.293147566606
        14    2       21.183187560790       1.872346454957       0.000000000000
        15    2       15.887390472000       0.000000000000       0.000000000000
        16    2       17.211339942790       1.872346454957       2.293147566606
        17    2       22.507136237210       0.936173873438       2.293147566606
        18    1       18.535288619210       0.936173873438       0.000000000000
        19    2       27.802933326000       0.000000000000       2.293147566606
        20    2       29.126882796790       1.872346454957       0.000000000000
        21    2       23.831085708000       0.000000000000       0.000000000000
        22    1       25.155035178790       1.872346454957       2.293147566606
        23    1       30.450831473210       0.936173873438       2.293147566606
        24    1       26.478983855210       0.936173873438       0.000000000000
        25    3       35.746628562000       0.000000000000       2.293147566606
        26    3       37.070578032790       1.872346454957       0.000000000000
        27    1       31.774780944000       0.000000000000       0.000000000000
        28    2       33.098730414790       1.872346454957       2.293147566606
        29    1       38.394526709210       0.936173873438       2.293147566606
        30    1       34.422679091210       0.936173873438       0.000000000000
        31    1       43.690323798000       0.000000000000       2.293147566606
        32    1       45.014273268790       1.872346454957       0.000000000000
        33    3       39.718476180000       0.000000000000       0.000000000000
        34    1       41.042425650790       1.872346454957       2.293147566606
        35    3       46.338221945210       0.936173873438       2.293147566606
        36    1       42.366374327210       0.936173873438       0.000000000000
        37    2       51.634019034000       0.000000000000       2.293147566606
        38    1       52.957968504790       1.872346454957       0.000000000000
        39    1       47.662171416000       0.000000000000       0.000000000000
        40    3       48.986120886790       1.872346454957       2.293147566606
        41    3       54.281917181210       0.936173873438       2.293147566606
        42    1       50.310069563210       0.936173873438       0.000000000000
        43    1       59.577714270000       0.000000000000       2.293147566606
        44    3       60.901663740790       1.872346454957       0.000000000000
        45    3       55.605866652000       0.000000000000       0.000000000000
        46    2       56.929816122790       1.872346454957       2.293147566606
        47    3       62.225612417210       0.936173873438       2.293147566606
        48    1       58.253764799210       0.936173873438       0.000000000000
        49    2       67.521409506000       0.000000000000       2.293147566606
        50    2       68.845358976790       1.872346454957       0.000000000000
        51    2       63.549561888000       0.000000000000       0.000000000000
        52    2       64.873511358790       1.872346454957       2.293147566606
        53    2       70.169307653210       0.936173873438       2.293147566606
        54    3       66.197460035210       0.936173873438       0.000000000000
        55    3       75.465104742000       0.000000000000       2.293147566606
        56    1       76.789054212790       1.872346454957       0.000000000000
        57    2       71.493257124000       0.000000000000       0.000000000000
        58    1       72.817206594790       1.872346454957       2.293147566606
        59    3       78.113002889210       0.936173873438       2.293147566606
        60    1       74.141155271210       0.936173873438       0.000000000000
        61    1        3.971847618000       2.808520328395       2.293147566606
        62    1        5.295797088790       4.680866783352       0.000000000000
        63    2        0.000000000000       2.808520328395       0.000000000000
        64    2        1.323949470790       4.680866783352       2.293147566606
        65    3        6.619745765210       3.744694201833       2.293147566606
        66    1        2.647898147210       3.744694201833       0.000000000000
        67    3       11.915542854000       2.808520328395       2.293147566606
        68    3       13.239492324790       4.680866783352       0.000000000000
        69    3        7.943695236000       2.808520328395       0.000000000000
        70    2        9.267644706790       4.680866783352       2.293147566606
        71    1       14.563441001210       3.744694201833       2.293147566606
        72    1       10.591593383210       3.744694201833       0.000000000000
        73    1       19.859238090000       2.808520328395       2.293147566606
        74    2       21.183187560790       4.680866783352       0.000000000000
        75    3       15.887390472000       2.808520328395       0.000000000000
        76    3       17.211339942790       4.680866783352       2.293147566606
        77    3       22.507136237210       3.744694201833       2.293147566606
        78    2       18.535288619210       3.744694201833       0.000000000000
        79    3       27.802933326000       2.808520328395       2.293147566606
        80    1       29.126882796790       4.680866783352       0.000000000000
        81    2       23.831085708000       2.808520328395       0.000000000000
        82    1       25.155035178790       4.680866783352       2.293147566606
        83    2       30.450831473210       3.744694201833       2.293147566606
        84    1       26.478983855210       3.744694201833       0.000000000000
        85    2       35.746628562000       2.808520328395       2.293147566606
        86    1       37.070578032790       4.680866783352       0.000000000000
        87    3       31.774780944000       2.808520328395       0.000000000000
        88    2       33.098730414790       4.680866783352       2.293147566606
        89    2       38.394526709210       3.744694201833       2.293147566606
        90    2       34.422679091210       3.744694201833       0.000000000000
        91    3       43.690323798000       2.808520328395       2.293147566606
        92    1       45.014273268790       4.680866783352       0.000000000000
        93    3       39.718476180000       2.808520328395       0.000000000000
        94    3       41.042425650790       4.680866783352       2.293147566606
        95    2       46.338221945210       3.744694201833       2.293147566606
        96    3       42.366374327210       3.744694201833       0.000000000000
        97    2       51.634019034000       2.808520328395       2.293147566606
        98    1       52.957968504790       4.680866783352       0.000000000000
        99    2       47.662171416000       2.808520328395       0.000000000000
       100    2       48.986120886790       4.680866783352       2.293147566606
       101    1       54.281917181210       3.744694201833       2.293147566606
       102    1       50.310069563210       3.744694201833       0.000000000000
       103    1       59.577714270000       2.808520328395       2.293147566606
       104    2       60.901663740790       4.680866783352       0.000000000000
       105    3       55.605866652000       2.808520328395       0.000000000000
       106    2       56.929816122790       4.680866783352       2.293147566606
       107    2       62.225612417210       3.744694201833       2.293147566606
       108    1       58.253764799210       3.744694201833       0.000000000000
       109    1       67.521409506000       2.808520328395       2.293147566606
       110    1       68.845358976790       4.680866783352       0.000000000000
       111    3       63.549561888000       2.808520328395       0.000000000000
       112    3       64.873511358790       4.680866783352       2.293147566606
       113    3       70.169307653210       3.744694201833       2.293147566606
       114    3       66.197460035210       3.744694201833       0.000000000000
       115    3       75.465104742000       2.808520328395       2.293147566606
       116    1       76.789054212790       4.680866783352       0.000000000000
       117    1       71.493257124000       2.808520328395       0.000000000000
       118    3       72.817206594790       4.680866783352       2.293147566606
       119    1       78.113002889210       3.744694201833       2.293147566606
       120    3       74.141155271210       3.744694201833       0.000000000000
       121    2        3.971847618000       5.617040656790       2.293147566606
       122    3        5.295797088790       7.489387111746       0.000000000000
       123    2        0.000000000000       5.617040656790       0.000000000000
       124    2        1.323949470790       7.489387111746       2.293147566606
       125    1        6.619745765210       6.553214530228       2.293147566606
       126    2        2.647898147210       6.553214530228       0.000000000000
       127    3       11.915542854000       5.617040656790       2.293147566606
       128    1       13.239492324790       7.489387111746       0.000000000000
       129    1        7.943695236000       5.617040656790       0.000000000000
       130    1        9.267644706790       7.489387111746       2.293147566606
       131    2       14.563441001210       6.553214530228       2.293147566606
       132    2       10.591593383210       6.553214530228       0.000000000000
       133    3       19.859238090000       5.617040656790       2.293147566606
       134    1       21.183187560790       7.489387111746       0.000000000000
       135    2       15.887390472000       5.617040656790       0.000000000000
       136    1       17.211339942790       7.489387111746       2.293147566606
       137    3       22.507136237210       6.553214530228       2.293147566606
       138    1       18.535288619210       6.553214530228       0.000000000000
       139    1       27.802933326000       5.617040656790       2.293147566606
       140    3       29.126882796790       7.489387111746       0.000000000000
       141    3       23.831085708000       5.617040656790       0.000000000000
       142    3       25.155035178790       7.489387111746       2.293147566606
       143    3       30.450831473210       6.553214530228       2.293147566606
       144    2       26.478983855210       6.553214530228       0.000000000000
       145    2       35.746628562000       5.617040656790       2.293147566606
       146    3       37.070578032790       7.489387111746       0.000000000000
       147    1       31.774780944000       5.617040656790       0.000000000000
       148    1       33.098730414790       7.489387111746       2.293147566606
       149    2       38.394526709210       6.553214530228       2.293147566606
       150    2       34.422679091210       6.553214530228       0.000000000000
       151    2       43.690323798000       5.617040656790       2.293147566606
       152    1       45.014273268790       7.489387111746       0.000000000000
       153    1       39.718476180000       5.617040656790       0.000000000000
       154    3       41.042425650790       7.489387111746       2.293147566606
       155    3       46.338221945210       6.553214530228       2.293147566606
       156    3       42.366374327210       6.553214530228       0.000000000000
       157    3       51.634019034000       5.617040656790       2.293147566606
       158    2       52.957968504790       7.489387111746       0.000000000000
       159    3       47.662171416000       5.617040656790       0.000000000000
       160    1       48.986120886790       7.489387111746       2.293147566606
       161    2       54.281917181210       6.553214530228       2.293147566606
       162    1       50.310069563210       6.553214530228       0.000000000000
       163    1       59.577714270000       5.617040656790       2.293147566606
       164    1       60.901663740790       7.489387111746       0.000000000000
       165    1       55.605866652000       5.617040656790       0.000000000000
       166    2       56.929816122790       7.489387111746       2.293147566606
       167    2       62.225612417210       6.553214530228       2.293147566606
       168    1       58.253764799210       6.553214530228       0.000000000000
       169    1       67.521409506000       5.617040656790       2.293147566606
       170    1       68.845358976790       7.489387111746       0.000000000000
       171    3       63.549561888000       5.617040656790       0.000000000000
       172    3       64.873511358790       7.489387111746       2.293147566606
       173    2       70.169307653210       6.553214530228       2.293147566606
       174    2       66.197460035210       6.553214530228       0.000000000000
       175    3       75.465104742000       5.617040656790       2.293147566606
       176    2       76.789054212790       7.489387111746       0.000000000000
       177    2       71.493257124000       5.617040656790       0.000000000000
       178    3       72.817206594790       7.489387111746       2.293147566606
       179    1       78.113002889210       6.553214530228       2.293147566606
       180    3       74.141155271210       6.553214530228       0.000000000000
       181    1        3.971847618000       8.425560985184       2.293147566606
       182    3        5.295797088790      10.297907440141       0.000000000000
       183    3        0.000000000000       8.425560985184       0.000000000000
       184    3        1.323949470790      10.297907440141       2.293147566606
       185    3        6.619745765210       9.361734858622       2.293147566606
       186    2        2.647898147210       9.361734858622       0.000000000000
       187    2       11.915542854000       8.425560985184       2.293147566606
       188    3       13.239492324790      10.297907440141       0.000000000000
       189    2        7.943695236000       8.425560985184       0.000000000000
       190    2        9.267644706790      10.297907440141       2.293147566606
       191    3       14.563441001210       9.361734858622       2.293147566606
       192    3       10.591593383210       9.361734858622       0.000000000000
       193    1       19.859238090000       8.425560985184       2.293147566606
       194    1       21.183187560790      10.297907440141       0.000000000000
       195    2       15.887390472000       8.425560985184       0.000000000000
       196    2       17.211339942790      10.297907440141       2.293147566606
       197    2       22.507136237210       9.361734858622       2.293147566606
       198    1       18.535288619210       9.361734858622       0.000000000000
       199    1       27.802933326000       8.425560985184       2.293147566606
       200    3       29.126882796790      10.297907440141       0.000000000000
       201    1       23.831085708000       8.425560985184       0.000000000000
       202    2       25.155035178790      10.297907440141       2.293147566606
       203    1       30.450831473210       9.361734858622       2.293147566606
       204    2       26.478983855210       9.361734858622       0.000000000000
       205    2       35.746628562000       8.425560985184       2.293147566606
       206    3       37.070578032790      10.297907440141       0.000000000000
       207    1       31.774780944000       8.425560985184       0.000000000000
       208    1       33.098730414790      10.297907440141       2.293147566606
       209    1       38.394526709210       9.361734858622       2.293147566606
       210    1       34.422679091210       9.361734858622       0.000000000000
       211    1       43.690323798000       8.425560985184       2.293147566606
       212    1       45.014273268790      10.297907440141       0.000000000000
       213    1       39.718476180000       8.425560985184       0.000000000000
       214    2       41.042425650790      10.297907440141       2.293147566606
       215    1       46.338221945210       9.361734858622       2.293147566606
       216    2       42.366374327210       9.361734858622       0.000000000000
       217    2       51.634019034000       8.425560985184       2.293147566606
       218    2       52.957968504790      10.297907440141       0.000000000000
       219    3       47.662171416000       8.425560985184       0.000000000000
       220    1       48.986120886790      10.297907440141       2.293147566606
       221    1       54.281917181210       9.361734858622       2.293147566606
       222    2       50.310069563210       9.361734858622       0.000000000000
       223    1       59.577714270000       8.425560985184       2.293147566606
       224    3       60.901663740790      10.297907440141       0.000000000000
       225    1       55.605866652000       8.425560985184       0.000000000000
       226    3       56.929816122790      10.297907440141       2.293147566606
       227    3       62.225612417210       9.361734858622       2.293147566606
       228    3       58.253764799210       9.361734858622       0.000000000000
       229    2       67.521409506000       8.425560985184       2.293147566606
       230    2       68.845358976790      10.297907440141       0.000000000000
       231    2       63.549561888000       8.425560985184       0.000000000000
       232    3       64.873511358790      10.297907440141       2.293147566606
       233    3       70.169307653210       9.361734858622       2.293147566606
       234    2       66.197460035210       9.361734858622       0.000000000000
       235    1       75.465104742000       8.425560985184       2.293147566606
       236    1       76.789054212790      10.297907440141       0.000000000000
       237    1       71.493257124000       8.425560985184       0.000000000000
       238    2       72.817206594790      10.297907440141       2.293147566606
       239    1       78.113002889210       9.361734858622       2.293147566606
       240    1       74.141155271210       9.361734858622       0.000000000000
       241    3        3.971847618000      11.234081313579       2.293147566606
       242    1        5.295797088790      13.106429060455       0.000000000000
       243    2        0.000000000000      11.234081313579       0.000000000000
       244    1        1.323949470790      13.106429060455       2.293147566606
       245    1        6.619745765210      12.170255187017       2.293147566606
       246    2        2.647898147210      12.170255187017       0.000000000000
       247    3       11.915542854000      11.234081313579       2.293147566606
       248    1       13.239492324790      13.106429060455       0.000000000000
       249    1        7.943695236000      11.234081313579       0.000000000000
       250    2        9.267644706790      13.106429060455       2.293147566606
       251    1       14.563441001210      12.170255187017       2.293147566606
       252    2       10.591593383210      12.170255187017       0.000000000000
       253    2       19.859238090000      11.234081313579       2.293147566606
       254    3       21.183187560790      13.106429060455       0.000000000000
       255    3       15.887390472000      11.234081313579       0.000000000000
       256    1       17.211339942790      13.106429060455       2.293147566606
       257    3       22.507136237210      12.170255187017       2.293147566606
       258    2       18.535288619210      12.170255187017       0.000000000000
       259    1       27.802933326000      11.234081313579       2.293147566606
       260    2       29.126882796790      13.106429060455       0.000000000000
       261    1       23.831085708000      11.234081313579       0.000000000000
       262    3       25.155035178790      13.106429060455       2.293147566606
       263    3       30.450831473210      12.170255187017       2.293147566606
       264    1       26.478983855210      12.170255187017       0.000000000000
       265    2       35.746628562000      11.234081313579       2.293147566606
       266    2       37.070578032790      13.106429060455       0.000000000000
       267    1       31.774780944000      11.234081313579       0.000000000000
       268    1       33.098730414790      13.106429060455       2.293147566606
       269    1       38.394526709210      12.170255187017       2.293147566606
       270    1       34.422679091210      12.170255187017       0.000000000000
       271    1       43.690323798000      11.234081313579       2.293147566606
       272    3       45.014273268790      13.106429060455       0.000000000000
       273    1       39.718476180000      11.234081313579       0.000000000000
       274    3       41.042425650790      13.106429060455       2.293147566606
       275    3       46.338221945210      12.170255187017       2.293147566606
       276    2       42.366374327210      12.170255187017       0.000000000000
       277    2       51.634019034000      11.234081313579       2.293147566606
       278    3       52.957968504790      13.106429060455       0.000000000000
       279    1       47.662171416000      11.234081313579       0.000000000000
       280    2       48.986120886790      13.106429060455       2.293147566606
       281    3       54.281917181210      12.170255187017       2.293147566606
       282    3       50.310069563210      12.170255187017       0.000000000000
       283    3       59.577714270000      11.234081313579       2.293147566606
       284    2       60.901663740790      13.106429060455       0.000000000000
       285    3       55.605866652000      11.234081313579       0.000000000000
       286    3       56.929816122790      13.106429060455       2.293147566606
       287    3       62.225612417210      12.170255187017       2.293147566606
       288    2       58.253764799210      12.170255187017       0.000000000000
       289    1       67.521409506000      11.234081313579       2.293147566606
       290    2       68.845358976790      13.106429060455       0.000000000000
       291    2       63.549561888000      11.234081313579       0.000000000000
       292    2       64.873511358790      13.106429060455       2.293147566606
       293    2       70.169307653210      12.170255187017       2.293147566606
       294    1       66.197460035210      12.170255187017       0.000000000000
       295    3       75.465104742000      11.234081313579       2.293147566606
       296    1       76.789054212790      13.106429060455       0.000000000000
       297    1       71.493257124000      11.234081313579       0.000000000000
       298    3       72.817206594790      13.106429060455       2.293147566606
       299    2       78.113002889210      12.170255187017       2.293147566606
       300    3       74.141155271210      12.170255187017       0.000000000000
       301    2        3.971847618000      14.042601641974       2.293147566606
       302    1        5.295797088790      15.914949388850       0.000000000000
       303    3        0.000000000000      14.042601641974       0.000000000000
       304    2        1.323949470790      15.914949388850       2.293147566606
       305    1        6.619745765210      14.978775515412       2.293147566606
       306    2        2.647898147210      14.978775515412       0.000000000000
       307    1       11.915542854000      14.042601641974       2.293147566606
       308    3       13.239492324790      15.914949388850       0.000000000000
       309    1        7.943695236000      14.042601641974       0.000000000000
       310    1        9.267644706790      15.914949388850       2.293147566606
       311    1       14.563441001210      14.978775515412       2.293147566606
       312    1       10.591593383210      14.978775515412       0.000000000000
       313    1       19.859238090000      14.042601641974       2.293147566606
       314    2       21.183187560790      15.914949388850       0.000000000000
       315    2       15.887390472000      14.042601641974       0.000000000000
       316    2       17.211339942790      15.914949388850       2.293147566606
       317    2       22.507136237210      14.978775515412       2.293147566606
       318    3       18.535288619210      14.978775515412       0.000000000000
       319    3       27.802933326000      14.042601641974       2.293147566606
       320    3       29.126882796790      15.914949388850       0.000000000000
       321    2       23.831085708000      14.042601641974       0.000000000000
       322    3       25.155035178790      15.914949388850       2.293147566606
       323    3       30.450831473210      14.978775515412       2.293147566606
       324    2       26.478983855210      14.978775515412       0.000000000000
       325    3       35.746628562000      14.042601641974       2.293147566606
       326    1       37.070578032790      15.914949388850       0.000000000000
       327    1       31.774780944000      14.042601641974       0.000000000000
       328    2       33.098730414790      15.914949388850       2.293147566606
       329    2       38.394526709210      14.978775515412       2.293147566606
       330    2       34.422679091210      14.978775515412       0.000000000000
       331    2       43.690323798000      14.042601641974       2.293147566606
       332    2       45.014273268790      15.914949388850       0.000000000000
       333    1       39.718476180000      14.042601641974       0.000000000000
       334    1       41.042425650790      15.914949388850       2.293147566606
       335    3       46.338221945210      14.978775515412       2.293147566606
       336    1       42.366374327210      14.978775515412       0.000000000000
       337    1       51.634019034000      14.042601641974       2.293147566606
       338    1       52.957968504790      15.914949388850       0.000000000000
       339    2       47.662171416000      14.042601641974       0.000000000000
       340    2       48.986120886790      15.914949388850       2.293147566606
       341    2       54.281917181210      14.978775515412       2.293147566606
       342    3       50.310069563210      14.978775515412       0.000000000000
       343    2       59.577714270000      14.042601641974       2.293147566606
       344    3       60.901663740790      15.914949388850       0.000000000000
       345    3       55.605866652000      14.042601641974       0.000000000000
       346    3       56.929816122790      15.914949388850       2.293147566606
       347    1       62.225612417210      14.978775515412       2.293147566606
       348    1       58.253764799210      14.978775515412       0.000000000000
       349    2       67.521409506000      14.042601641974       2.293147566606
       350    1       68.845358976790      15.914949388850       0.000000000000
       351    2       63.549561888000      14.042601641974       0.000000000000
       352    1       64.873511358790      15.914949388850       2.293147566606
       353    2       70.169307653210      14.978775515412       2.293147566606
       354    3       66.197460035210      14.978775515412       0.000000000000
       355    2       75.465104742000      14.042601641974       2.293147566606
       356    2       76.789054212790      15.914949388850       0.000000000000
       357    3       71.493257124000      14.042601641974       0.000000000000
       358    3       72.817206594790      15.914949388850       2.293147566606
       359    1       78.113002889210      14.978775515412       2.293147566606
       360    1       74.141155271210      14.978775515412       0.000000000000
       361    1        3.971847618000      16.851121970369       2.293147566606
       362    1        5.295797088790      18.723469717245       0.000000000000
       363    1        0.000000000000      16.851121970369       0.000000000000
       364    1        1.323949470790      18.723469717245       2.293147566606
       365    2        6.619745765210      17.787295843807       2.293147566606
       366    2        2.647898147210      17.787295843807       0.000000000000
       367    3       11.915542854000      16.851121970369       2.293147566606
       368    1       13.239492324790      18.723469717245       0.000000000000
       369    2        7.943695236000      16.851121970369       0.000000000000
       370    3        9.267644706790      18.723469717245       2.293147566606